/home/evenmn/vashishta-water/silicawater/.perm/water/watercube_4nm.data (Built with Packmol)

6405 atoms
2 atom types
0.0          40.0 xlo xhi
0.0          40.0 ylo yhi
0.0          40.0 zlo zhi

Atoms

1  1           33.093261       30.677456       38.809498
2  1           32.478472       31.610955       40.000065
3  2           32.865962       31.613559       39.078131
4  1           18.785882       18.217469       25.977389
5  1           20.379171       17.955556       26.221662
6  2           19.508484       17.526133       25.981623
7  1           16.602492       37.583099       34.295270
8  1           16.634405       36.046861       33.742285
9  2           16.571605       37.009037       33.476970
10  1           17.600258       10.063187       14.407148
11  1           18.502486        9.503079       15.647752
12  2           17.819841        9.258616       14.959021
13  1            3.782950       30.577970       11.810033
14  1            2.323632       29.918277       11.490610
15  2            3.208362       30.171858       11.099373
16  1           18.188645       15.688243        6.320482
17  1           17.843119       17.275327        6.489628
18  2           18.560205       16.615113        6.265970
19  1           23.747472        1.435048       20.325222
20  1           24.554063        0.676636       21.525663
21  2           24.087432        1.520881       21.261799
22  1            6.474132       39.062894       13.185080
23  1            5.454748       40.005856       12.325712
24  2            6.262375       40.002361       12.915495
25  1           16.214704       22.580431       32.325505
26  1           17.169264       23.905413       32.316967
27  2           17.160234       22.905714       32.342229
28  1           26.490669       17.809120       31.592625
29  1           27.031859       19.305973       31.227415
30  2           26.289234       18.650289       31.090654
31  1           36.106191       32.975237       39.367717
32  1           36.367875       31.376433       39.573099
33  2           36.363907       32.267989       40.026122
34  1           34.610050       18.996904       19.371399
35  1           33.320215       18.347764       20.134144
36  2           34.254244       18.684980       20.252434
37  1           31.673108       24.994915        5.062865
38  1           32.397435       24.594495        3.655083
39  2           32.550844       24.912510        4.590738
40  1           19.273406       22.557233       29.394940
41  1           19.469259       22.942742       30.969697
42  2           18.877866       23.049579       30.170349
43  1           28.328516        1.007640       29.390068
44  1           29.907257        0.591206       29.421591
45  2           29.265459        1.357235       29.384000
46  1           31.672240       31.042743       30.205905
47  1           33.144743       30.379887       30.449198
48  2           32.598418       30.954003       29.839250
49  1           34.883908       37.056759        5.289690
50  1           35.599585       36.754106        6.726020
51  2           35.470747       36.421417        5.791763
52  1            5.955203       20.259888       37.173206
53  1            4.892238       20.043393       35.952520
54  2            5.791031       20.406930       36.197735
55  1            6.092805       18.412770       10.552764
56  1            7.069245       17.846203       11.732765
57  2            6.232218       17.674733       11.213053
58  1           20.348940        0.000228       21.845824
59  1           18.946601       -0.000191       21.008994
60  2           19.667984        0.576068       21.393249
61  1            6.332902       32.242484       21.386091
62  1            4.707482       32.353273       21.273975
63  2            5.477071       32.245514       21.903450
64  1           34.599587       23.202352       22.447149
65  1           36.172959       23.264320       22.880155
66  2           35.497330       22.778927       22.325145
67  1            7.917823       33.226100        8.942555
68  1            6.463576       33.765189        9.453814
69  2            7.043803       33.616426        8.652986
70  1            9.673372       31.891394        4.083799
71  1           11.146424       32.340166        4.627450
72  2           10.181709       32.240145        4.871252
73  1           31.583813       10.330923       33.413468
74  1           30.624421       11.650127       33.335348
75  2           30.642552       10.661339       33.483965
76  1            2.560999       15.216691       29.332431
77  1            4.151466       15.493379       29.086064
78  2            3.447499       14.786970       29.160458
79  1           22.119025        6.587017       18.354076
80  1           23.223650        5.579609       17.696986
81  2           22.337524        6.021978       17.558396
82  1           19.770694       29.648538       30.051311
83  1           18.708869       30.204235       28.942004
84  2           18.876634       29.497550       29.629441
85  1           37.823097       10.494177       21.328093
86  1           38.867028        9.242360       21.428078
87  2           38.788890       10.234661       21.331376
88  1            1.571592       22.490829       28.555427
89  1            3.161680       22.505540       28.183622
90  2            2.467232       22.853043       28.813782
91  1           14.058005       34.095229       15.305944
92  1           13.282849       34.667914       16.624277
93  2           13.604121       34.892401       15.704219
94  1           28.700912       20.780327       26.873500
95  1           28.546447       19.216908       26.427743
96  2           28.946369       20.100154       26.182679
97  1           16.687334       11.872801       34.493664
98  1           15.362610       11.173148       33.843719
99  2           15.977771       11.960078       33.794365
100  1            3.858325        3.611509       -0.000325
101  1            4.113226        3.171349        1.551487
102  2            3.659481        2.921748        0.695956
103  1           21.924298       10.060546       30.166539
104  1           21.173492       10.135218       28.718247
105  2           22.041810       10.269931       29.195733
106  1           20.305235       10.061549        0.475626
107  1           21.705548        9.224788        0.399541
108  2           21.168536        9.957650       -0.018370
109  1           22.371667       28.171764       37.409846
110  1           20.867089       28.802140       37.485397
111  2           21.399020       27.955336       37.494897
112  1           20.005542       17.185991       39.998724
113  1           21.423350       17.996335       39.998960
114  2           20.717246       17.586432       39.421453
115  1           32.730644       37.396469       27.846101
116  1           32.677364       39.028141       27.805580
117  2           32.867676       38.203899       27.272172
118  1            8.131014        6.761565       37.605937
119  1            8.157263        8.386376       37.444268
120  2            8.720188        7.568576       37.564418
121  1           35.108352       16.700745       12.465922
122  1           35.932198       18.066018       12.818264
123  2           36.010867       17.131510       12.470954
124  1           14.324240       17.258823        3.304998
125  1           15.593466       16.236065        3.404335
126  2           14.597060       16.297531        3.345041
127  1            2.880131        5.121692       16.017190
128  1            3.094761        6.643980       15.466364
129  2            3.457773        5.936180       16.072466
130  1           12.635088       17.388002        4.708499
131  1           12.790839       16.124005        5.730698
132  2           12.561676       17.095016        5.661854
133  1           21.668050       19.572456       27.231120
134  1           21.611915       20.812745       26.170287
135  2           21.275586       20.474098       27.049104
136  1           38.531331       12.769977        7.544062
137  1           37.126911       11.941254        7.631585
138  2           38.105560       11.871319        7.438002
139  1           14.485094       32.535650       16.794098
140  1           16.099657       32.303113       16.716963
141  2           15.206185       31.862053       16.631579
142  1           28.120471       33.924149        8.014153
143  1           26.758762       34.821371        7.927100
144  2           27.132865       33.896403        7.859292
145  1           20.834784        5.988759       22.949208
146  1           19.875796        7.170398       22.356833
147  2           20.816287        6.921151       22.588072
148  1           26.904029       18.133745       -0.002163
149  1           26.390173       16.721323        0.636471
150  2           27.115797       17.409280        0.653902
151  1           28.317755        5.960062       18.392335
152  1           28.815413        4.793425       17.363680
153  2           28.175325        5.551206       17.490855
154  1           32.407407       17.546479       14.014713
155  1           33.730633       18.410807       14.425618
156  2           33.359221       17.488757       14.316100
157  1           25.151079        7.769812        5.989565
158  1           24.763798        6.825011        7.264006
159  2           24.959945        6.833200        6.283405
160  1           30.724511       32.626705       28.628749
161  1           29.356749       32.964923       27.803114
162  2           29.757561       32.867198       28.714112
163  1           18.219201        0.012232       28.790242
164  1           18.893815        1.100929       27.777093
165  2           18.037992        0.794204       28.193753
166  1           10.395191       23.937661        1.996329
167  1            9.441130       22.617013        2.108095
168  2           10.223620       23.021310        1.634416
169  1           21.718044       14.130641       17.299616
170  1           20.351267       13.918583       18.167826
171  2           20.748960       13.888558       17.250735
172  1            9.609441       15.049269       20.832543
173  1            9.583484       14.137889       19.477718
174  2           10.161996       14.684964       20.082822
175  1           14.457736       18.237544       24.796094
176  1           12.877057       18.170688       25.200841
177  2           13.809561       18.001759       25.520242
178  1           20.598452       11.798017       16.598820
179  1           22.201721       12.011334       16.824342
180  2           21.456906       12.061922       16.158902
181  1           29.172946       38.222757       18.913557
182  1           28.729905       36.836582       19.654548
183  2           29.301692       37.231258       18.935237
184  1           29.760972       11.939505        7.416756
185  1           29.101332       10.479092        7.731246
186  2           29.849269       11.103094        7.957807
187  1            0.057558       37.507526        5.338839
188  1            0.369839       39.064870        4.959372
189  2           -0.004818       38.201432        4.621400
190  1           13.566770       31.531447       23.954013
191  1           12.072023       30.942825       24.247427
192  2           13.025561       30.698619       24.070655
193  1           12.102077        4.041417       36.722103
194  1           13.692197        4.204740       36.387918
195  2           12.936151        3.554421       36.462735
196  1           15.862445       26.226668        7.197549
197  1           16.934281       27.381369        7.627281
198  2           16.313106       26.676028        7.968974
199  1           39.095333       28.690633       19.020605
200  1           40.000458       27.426860       18.520142
201  2           39.203312       27.697207       19.060131
202  1           23.276778       18.778611       28.508864
203  1           24.568076       18.348759       27.606306
204  2           23.812002       18.997575       27.692956
205  1           30.337005       25.373667       10.307581
206  1           28.775459       25.301039        9.835209
207  2           29.646733       24.810452        9.853235
208  1           15.998373       25.693458       30.967479
209  1           17.402623       26.496835       30.744986
210  2           16.791531       25.800783       30.367898
211  1           39.905365       30.367687       11.823699
212  1           38.644500       30.677445       12.814207
213  2           39.439095       31.074967       12.355173
214  1           10.305121       32.547457       38.947435
215  1           10.584036       31.343503       37.879943
216  2           10.949604       31.834587       38.670711
217  1           36.666726       12.333213       36.498937
218  1           36.371631       10.876077       37.174592
219  2           36.052965       11.821056       37.099860
220  1            8.336350        7.840915       15.168587
221  1            8.506037        9.465047       15.153114
222  2            8.756210        8.613514       14.692220
223  1           14.140946       14.502671       32.210771
224  1           15.577328       14.365946       32.975590
225  2           14.705181       13.913466       32.789211
226  1           36.415699        7.973247       24.264220
227  1           37.362319        9.023239       23.446746
228  2           37.039702        8.077623       23.489724
229  1           32.632851       16.465902       10.213306
230  1           32.702594       15.050783       11.025348
231  2           32.664340       15.470837       10.118590
232  1            1.867961        0.352309       13.652179
233  1            3.462670        0.002266       13.617395
234  2            2.789048        0.741281       13.631779
235  1           28.102518       23.972131       11.728136
236  1           28.448299       25.024309       12.928216
237  2           28.051538       24.928740       12.015218
238  1           34.554406       24.616153       18.211713
239  1           34.308647       23.004696       18.113502
240  2           33.860689       23.897250       18.166408
241  1            7.039191       22.587521        1.199662
242  1            5.732549       22.628891        2.178341
243  2            6.078489       22.325029        1.290585
244  1            3.364403       38.022589        8.939539
245  1            3.091350       39.607445        9.223282
246  2            3.797137       38.911022        9.092982
247  1           30.721055        3.143516       33.987147
248  1           32.184092        3.808206       33.696376
249  2           31.226338        4.002927       33.908294
250  1           24.741988       31.325726       30.677067
251  1           25.134352       32.629967       31.578090
252  2           24.810811       32.323396       30.682850
253  1            2.146997        8.341843       20.078213
254  1            0.553525        8.061854       19.856202
255  2            1.429842        7.645131       20.098126
256  1            1.780705        3.219655       14.762269
257  1            2.891810        2.147368       15.293760
258  2            1.913725        2.345997       15.230396
259  1            2.009746        5.351493       36.972675
260  1            0.938914        5.480918       38.198809
261  2            1.402926        5.976165       37.464275
262  1           31.246898       39.739412        7.688470
263  1           32.838170       39.999962        7.430004
264  2           32.160799       39.673007        8.089085
265  1           18.087281       30.144159       17.385271
266  1           18.111725       31.766967       17.566199
267  2           17.646990       30.922561       17.832878
268  1           25.474791       33.080647       26.108186
269  1           25.879645       34.662542       26.131376
270  2           25.118726       34.014977       26.089182
271  1           26.188753       19.342609       15.363870
272  1           24.776952       20.156539       15.258170
273  2           25.353353       19.595221       15.852142
274  1           16.178446       11.459975        6.503880
275  1           17.272915       11.011692        7.629943
276  2           16.547293       10.688473        7.022391
277  1           19.189439       26.701304       26.614830
278  1           18.231841       27.676569       27.508530
279  2           18.631742       27.531341       26.603485
280  1            1.498724        3.610110       25.748068
281  1            0.611160        4.967316       25.555567
282  2            0.734377        4.144028       26.109762
283  1           36.350032       39.138092        1.285696
284  1           35.457559       39.603893       -0.000133
285  2           36.365981       39.633340        0.417024
286  1           37.112446       20.682251        6.195306
287  1           35.954391       19.622734        5.744562
288  2           36.370099       20.510701        5.547534
289  1            0.821948        4.939086       11.407156
290  1            1.833179        3.657904       11.460259
291  2            0.884351        3.944232       11.326616
292  1           20.001147       24.073289        8.131474
293  1           21.334158       23.862389        9.050952
294  2           20.464793       24.350506        8.973080
295  1            1.332180       24.410465       12.025244
296  1            1.697664       22.818929       12.008757
297  2            1.211530       23.539996       12.502573
298  1           19.743946       20.443148       17.204784
299  1           19.375919       18.855741       17.097403
300  2           19.008859       19.768790       17.275523
301  1           35.668685        2.639863        2.048575
302  1           35.560465        1.455979        3.168192
303  2           36.156296        1.886695        2.490264
304  1           23.328145       19.140131       10.236875
305  1           24.082557       20.527227        9.820146
306  2           24.198733       19.632070       10.250628
307  1           25.303997       39.733149       -0.003613
308  1           25.393849       40.002613        1.604539
309  2           25.577979       39.343192        0.875582
310  1           19.133846       31.210020       32.371247
311  1           20.658735       30.807833       31.947222
312  2           19.835503       30.499374       32.423940
313  1            5.766575       30.872497       36.079161
314  1            4.603982       29.811465       35.643932
315  2            4.805122       30.774784       35.821914
316  1           12.740435       23.701797       22.375860
317  1           12.327377       24.434895       23.775427
318  2           12.228413       24.459525       22.780581
319  1            9.987607       32.854951        9.755106
320  1           10.514053       33.081005        8.225861
321  2           10.416433       33.504091        9.126742
322  1           30.800687       15.120864        6.865054
323  1           29.630541       14.133923        7.433863
324  2           29.815282       15.015381        6.999098
325  1            8.752948       27.372863       17.251769
326  1            9.968004       28.241257       16.591188
327  2            9.181455       27.656061       16.393692
328  1           17.807972        3.909330        3.748094
329  1           17.824022        2.334690        3.315558
330  2           17.420780        3.006766        3.936709
331  1            5.380952       35.546748       11.361598
332  1            5.078145       33.955799       11.151772
333  2            5.325161       34.658967       11.818598
334  1           28.563478        0.455892        4.853110
335  1           29.589987        1.502234        5.573030
336  2           29.522795        0.644188        5.063755
337  1           13.150500       30.503603       29.995242
338  1           13.873687       31.197698       28.706030
339  2           13.042895       31.175386       29.262271
340  1           26.196922       30.690499       35.581088
341  1           25.077054       31.545135       34.755057
342  2           25.850042       31.608052       35.386444
343  1            8.264759        5.448339       17.889962
344  1            9.859491        5.359657       18.230258
345  2            9.034831        4.827659       18.037816
346  1           22.766025       20.905028       37.970834
347  1           21.918786       20.013988       39.045576
348  2           22.679507       20.004219       38.396480
349  1            5.668832       17.957825       25.437975
350  1            4.876162       16.530237       25.460435
351  2            4.815827       17.493664       25.199117
352  1            2.924987       10.736220        0.414296
353  1            1.514538       10.025165       -0.000277
354  2            1.930452       10.777430        0.510830
355  1           14.965125       32.817595       21.145033
356  1           14.602693       31.490813       22.025448
357  2           15.070768       31.825087       21.207349
358  1           38.931640       18.332761        4.213975
359  1           37.563982       17.441644        4.261518
360  2           38.329875       17.731908        3.687695
361  1            9.818731       33.683595       33.946998
362  1           11.344741       33.180644       34.238832
363  2           10.786270       33.925899       33.874384
364  1           25.616621       31.439768       15.366364
365  1           25.050717       30.045113       16.000024
366  2           24.887336       31.027874       15.912810
367  1            0.459555       27.220476       27.531748
368  1            1.349466       26.028589       28.205766
369  2            0.443858       26.276460       27.861452
370  1           11.873194       12.768565       36.926946
371  1           11.917509       11.381437       37.787613
372  2           12.367641       12.260905       37.632581
373  1           10.825274       22.596710       25.543519
374  1            9.879666       21.419051       26.164630
375  2           10.432246       21.692293       25.377159
376  1           25.844797       25.446662       21.825492
377  1           27.252086       26.240080       21.587035
378  2           26.264689       26.346253       21.704898
379  1           35.078329        4.318575       35.668455
380  1           36.081011        3.183584       35.057506
381  2           35.136993        3.382760       35.320712
382  1           22.331149       28.485556       33.347520
383  1           21.140682       29.474431       33.868817
384  2           21.356310       28.547359       33.561962
385  1           13.931688       38.683064        0.129291
386  1           15.088352       37.532401        0.199559
387  2           14.904641       38.494124       -0.004049
388  1           30.736624       15.961305       34.198294
389  1           29.778758       15.266912       35.323971
390  2           30.167512       16.130608       35.003008
391  1           14.357193       34.400878       23.222640
392  1           13.632229       33.647209       24.476931
393  2           14.502651       33.800231       24.008885
394  1           28.688095        7.686211       35.651006
395  1           30.098182        8.291456       36.209727
396  2           29.105843        8.414517       36.194304
397  1           27.593449       23.903356       16.608699
398  1           29.160812       23.663195       16.999253
399  2           28.215031       23.486579       17.272060
400  1           39.692049       25.289750       19.872579
401  1           38.570627       25.457701       21.047756
402  2           39.171506       25.948077       20.416415
403  1            2.742119       24.867794       26.563685
404  1            2.140839       26.009615       25.562913
405  2            1.905324       25.259663       26.181154
406  1           10.736949        0.190575       34.068132
407  1           11.076892        0.001393       35.654160
408  2           11.458793       -0.011920       34.729989
409  1           15.246315       33.944330       30.955381
410  1           16.667200       33.650560       30.205967
411  2           15.672269       33.629950       30.106944
412  1            4.087415       26.206778        7.345266
413  1            3.509863       25.688316        8.782091
414  2            3.346805       25.707977        7.795611
415  1           19.435842       30.979330        1.782821
416  1           20.915669       30.304499        1.929626
417  2           20.418438       31.136437        1.683131
418  1           39.139365        3.060372        7.293149
419  1           38.624060        4.055611        8.480918
420  2           38.333798        3.441272        7.747124
421  1           35.628615       20.186361       17.707346
422  1           35.124721       20.054136       16.159624
423  2           35.910852       19.971712       16.772261
424  1           11.995281       39.794559       24.033515
425  1           13.429556       39.994860       24.788214
426  2           12.492509       39.660903       24.890847
427  1            3.175348       27.940110       35.005267
428  1            4.656794       27.598453       34.409091
429  2            3.768314       27.213201       34.658696
430  1           10.200650       20.939713       19.413418
431  1            9.852526       21.440820       17.898644
432  2           10.588478       21.179825       18.523444
433  1           39.144696       23.836926       35.348790
434  1           39.522956       23.311240       33.849654
435  2           39.137536       24.069151       34.376094
436  1            2.739273       36.375108       38.385849
437  1            3.059185       36.023694       39.948219
438  2            2.436402       36.503646       39.330234
439  1           26.471903       34.493335        2.048470
440  1           25.023588       34.529923        2.802048
441  2           25.806410       33.954473        2.565057
442  1           10.079367       18.540195        0.097665
443  1            9.780277       19.028529        1.627015
444  2            9.993916       19.334531        0.699200
445  1           20.224135        9.701330        6.184293
446  1           18.608655        9.928504        6.258142
447  2           19.499330       10.314514        6.498585
448  1           22.269972       17.556207        9.135980
449  1           20.740944       17.001724        9.282472
450  2           21.664256       16.777915        8.970186
451  1           12.366185       11.654885        7.332139
452  1           11.840544       10.248722        6.689300
453  2           11.717470       11.241171        6.693292
454  1           26.970083        1.409382       27.699637
455  1           26.055697        0.484280       28.687018
456  2           26.738475        0.471016       27.956431
457  1            1.245404       32.523661       12.933681
458  1            1.087833       32.903708       14.514051
459  2            0.610641       32.843288       13.637264
460  1            5.212663       14.233633       20.162720
461  1            6.823544       14.452164       20.318101
462  2            5.997746       14.115771       20.770889
463  1            3.666587       26.122848       15.017326
464  1            3.068827       27.629412       14.817860
465  2            3.879432       27.098790       15.065810
466  1            3.933681       12.141723       33.309741
467  1            4.970198       10.884870       33.422833
468  2            4.803786       11.832954       33.694054
469  1           34.262324       10.870824        4.714730
470  1           33.030074        9.840116        4.421409
471  2           34.018387        9.914206        4.555067
472  1           16.215024       25.808089        2.384729
473  1           17.673574       25.792165        1.650415
474  2           16.891501       25.232631        1.925008
475  1            0.005255       38.968013       19.506454
476  1            1.038383       37.703936       19.546348
477  2            0.795461       38.573806       19.975806
478  1           34.959705       29.987724       12.206020
479  1           35.667466       28.560150       12.563714
480  2           35.213573       29.365005       12.946215
481  1           16.715093       39.639826       12.408262
482  1           18.209407       39.380869       11.802620
483  2           17.676963       39.907516       12.465390
484  1           26.716534       32.151434       12.211420
485  1           26.617638       30.971217       11.087079
486  2           27.032127       31.237081       11.957501
487  1           13.090301        8.151396       13.475879
488  1           14.234774        9.093878       12.791228
489  2           13.265674        8.847255       12.779358
490  1           37.324632       32.919313        4.329182
491  1           38.846477       33.450236        4.066609
492  2           37.882278       33.591358        3.841839
493  1           23.188198        1.025621       38.343692
494  1           24.716468        1.574034       38.518245
495  2           24.151217        0.759512       38.387239
496  1            3.247015       36.125120       23.893452
497  1            1.725808       36.135541       23.299602
498  2            2.353228       35.677969       23.929752
499  1           33.071395       25.569785       19.629831
500  1           34.162839       26.646249       19.066973
501  2           33.536940       26.434703       19.817717
502  1            3.621721       27.484583       27.067264
503  1            5.246215       27.592692       26.940111
504  2            4.397385       28.114465       27.025898
505  1            8.289945       22.430781       34.373184
506  1            7.542050       20.979272       34.397846